                         Program Version 4.0.0.2 - RELEASE -
|  1> !PBE def2-svp CHELPG
|  2> %loc
|  3>  MaxIter 300
|  4> end
|  5> * xyzfile 0 1 NaCl.xyz
|  6>
|  7> % MaxCore 1000
|  8>
|  9>                          ****END OF INPUT****

CARTESIAN COORDINATES (ANGSTROEM)
---------------------------------
  Na     0.000000    0.000000    0.000000
  Cl     0.000000    0.000000    2.820000

 Total Charge           Charge          ....    0
 Multiplicity           Mult            ....    1
 Number of Electrons    NEL             ....   28
 Basis Dimension        Dim             ....   33

ORBITAL ENERGIES
----------------

  NO   OCC          E(Eh)            E(eV)
   0   2.0000    -100.500312     -2734.7525
   1   2.0000     -37.975573     -1033.3679
   2   2.0000      -9.031305      -245.7543
   3   2.0000      -6.858148      -186.6197
   4   2.0000      -6.854351      -186.5164
   5   2.0000      -6.854351      -186.5164
   6   2.0000      -2.116553       -57.5943
   7   2.0000      -1.094364       -29.7792
   8   2.0000      -1.094364       -29.7792
   9   2.0000      -1.091320       -29.6963
  10   2.0000      -0.582383       -15.8474
  11   2.0000      -0.179013        -4.8712
  12   2.0000      -0.156528        -4.2593
  13   2.0000      -0.156528        -4.2593
  14   0.0000      -0.093098        -2.5333
  15   0.0000      -0.003303        -0.0899
  16   0.0000      -0.003303        -0.0899
  17   0.0000       0.035565         0.9678
  18   0.0000       0.052399         1.4259

MULLIKEN ATOMIC CHARGES
-----------------------
   0 Na:    0.493419
   1 Cl:   -0.493419
Sum of atomic charges:   -0.0000000

LOEWDIN ATOMIC CHARGES
----------------------
   0 Na:    0.351026
   1 Cl:   -0.351026

  Mayer bond orders larger than 0.1
B(  0-Na,  1-Cl) :   0.8954

FINAL SINGLE POINT ENERGY      -622.028422781676

DIPOLE MOMENT
-------------
                                X             Y             Z
Electronic contribution:     -0.00000      -0.00000      -3.70309
Nuclear contribution   :      0.00000       0.00000       0.07723
                        -----------------------------------------
Total Dipole Moment    :     -0.00000      -0.00000      -3.62586
                        -----------------------------------------
Magnitude (a.u.)       :      3.62586
Magnitude (Debye)      :      9.21620

                             ****ORCA TERMINATED NORMALLY****
TOTAL RUN TIME: 0 days 0 hours 0 minutes 20 seconds 910 msec
